 Q-Chem 4.3, Q-Chem, Inc., Pleasanton, CA (2015)
 Q-Chem 4.3.0 for Intel X86 EM64T Linux

User input:
--------------------------------------------------------------
$rem
 method hf
 basis sto-3g
 scf_guess core
 scf_convergence 11
 symmetry false
 sym_ignore true
$end

$molecule
0 2
H 0.000 0.000 0.000
O 0.000 0.000 0.9697
$end
--------------------------------------------------------------

             Standard Nuclear Orientation (Angstroms)
    I     Atom           X                Y                Z
 ----------------------------------------------------------------
    1      H       0.0000000000     0.0000000000     0.0000000000
    2      O       0.0000000000     0.0000000000     0.9697000000
 ----------------------------------------------------------------

   16     -74.3626375184      2.14E-13 Convergence criterion met
 Total energy in the final basis set = -74.3626375184

                    Orbital Energies (a.u.)
 --------------------------------------------------------------

 Alpha MOs
 -- Occupied --
-20.286  -1.292  -0.551  -0.525  -0.430

 Beta MOs
 -- Occupied --
-20.257  -1.128  -0.503  -0.378

          Ground-State Mulliken Net Atomic Charges

     Atom                 Charge (a.u.)    Spin (a.u.)
  --------------------------------------------------------
      1 H                     0.164586      -0.069705
      2 O                    -0.164586       1.069705
  --------------------------------------------------------
  Sum of atomic charges =    -0.000000

                    Cartesian Multipole Moments
 -----------------------------------------------------------------
    Charge (ESU x 10^10)
                -0.0000
    Dipole Moment (Debye)
         X       0.0000      Y      -0.0000      Z      -1.2788
       Tot       1.2788
    Quadrupole Moments (Debye-Ang)
        XX      -4.5865     XY      -0.0000     YY      -5.3857
        XZ       0.0000     YZ      -0.0000     ZZ      -6.4858

 Total job time:  0.52s(wall), 0.51s(cpu)
        *  Thank you very much for using Q-Chem.  Have a nice day.  *
