                               Psi4 1.1rc2.dev3

  ==> Input File <==

--------------------------------------------------------------------------
molecule {
    0 2
    H 0.000 0.000 0.000
    O 0.000 0.000 0.9697
    units angstrom
    symmetry c1
    no_reorient
    no_com
}

set {
    reference uhf
    basis sto-3g
    scf_type direct
}

energy('hf')
--------------------------------------------------------------------------

    Molecular point group: c1

    Geometry (in Angstrom), charge = 0, multiplicity = 2:

       Center              X                  Y                   Z               Mass
    ------------   -----------------  -----------------  -----------------  -----------------
           H          0.000000000000     0.000000000000     0.000000000000     1.007825032070
           O          0.000000000000     0.000000000000     0.969700000000    15.994914619560

  Charge       = 0
  Multiplicity = 2
  Basis Set: STO-3G
    Blend: STO-3G
  Basis Set: (STO-3G AUX)
    Blend: DEF2-SVP-JKFIT

    Orbital Energies (a.u.)
    -----------------------

    Alpha Occupied:

       1A    -20.285694     2A     -1.292275     3A     -0.551052
       4A     -0.524566     5A     -0.429677

    Alpha Virtual:

       6A      0.620361

    Beta Occupied:

       1A    -20.257220     2A     -1.128310     3A     -0.502929
       4A     -0.377805

    Beta Virtual:

       5A      0.360021     6A      0.656070

    Final Occupation by Irrep:
              A
    DOCC [     4 ]
    SOCC [     1 ]

  Energy converged.

  @UHF Final Energy:   -74.36263751907138

   => Energetics <=

    Nuclear Repulsion Energy =              4.3656983280602244
    One-Electron Energy =                -112.1071285939079303
    Two-Electron Energy =                  33.3787927467763126
    DFT Exchange-Correlation Energy =       0.0000000000000000
    Empirical Dispersion Energy =           0.0000000000000000
    PCM Polarization Energy =               0.0000000000000000
    EFP Energy =                            0.0000000000000000
    Total Energy =                        -74.3626375190713986

    Alert: EFP and PCM quantities not currently incorporated into SCF psivars.
  UHF NO Occupations:
  HONO-2 :    3  A 2.0000000
  HONO-1 :    4  A 1.9983711
  HONO-0 :    5  A 1.0000000
  LUNO+0 :    6  A 0.0016289

Properties will be evaluated at   0.000000,   0.000000,   0.000000 Bohr

Properties computed using the SCF density matrix

  Nuclear Dipole Moment: (a.u.)
     X:     0.0000      Y:     0.0000      Z:    14.6597

  Electronic Dipole Moment: (a.u.)
     X:    -0.0000      Y:     0.0000      Z:   -15.1629

  Dipole Moment: (a.u.)
     X:    -0.0000      Y:     0.0000      Z:    -0.5031     Total:     0.5031

  Dipole Moment: (Debye)
     X:    -0.0000      Y:     0.0000      Z:    -1.2788     Total:     1.2788

*** tstop() called on copper at Sat Apr 15 13:30:15 2017
Module time:
	user time   =       0.26 seconds =       0.00 minutes
	system time =       0.01 seconds =       0.00 minutes
	total time  =          2 seconds =       0.03 minutes
Total time:
	user time   =       0.26 seconds =       0.00 minutes
	system time =       0.01 seconds =       0.00 minutes
	total time  =          2 seconds =       0.03 minutes

*** Psi4 exiting successfully. Buy a developer a beer!
