                         Program Version 3.0.3 - RELEASE   -
|  1> ! uhf sto-3g verytightscf hcore nousesym
|  2>
|  3> * xyz 0 2
|  4> H 0.000 0.000 0.000
|  5> O 0.000 0.000 0.9697
|  6> *
|  7>
|  8> %eprnmr
|  9>  ori centerofelcharge
| 10>  gtensor 1
| 11>  end
| 12>
| 13>                          ****END OF INPUT****

CARTESIAN COORDINATES (ANGSTROEM)
---------------------------------
  H      0.000000    0.000000    0.000000
  O      0.000000    0.000000    0.969700

 Total Charge           Charge          ....    0
 Multiplicity           Mult            ....    2
 Number of Electrons    NEL             ....    9
 Basis Dimension        Dim             ....    6

ORBITAL ENERGIES
----------------
                 SPIN UP ORBITALS
  NO   OCC          E(Eh)            E(eV)
   0   1.0000     -20.285694      -552.0018
   1   1.0000      -1.292275       -35.1646
   2   1.0000      -0.551053       -14.9949
   3   1.0000      -0.524566       -14.2742
   4   1.0000      -0.429677       -11.6921
   5   0.0000       0.620361        16.8809

                 SPIN DOWN ORBITALS
  NO   OCC          E(Eh)            E(eV)
   0   1.0000     -20.257220      -551.2270
   1   1.0000      -1.128309       -30.7028
   2   1.0000      -0.502929       -13.6854
   3   1.0000      -0.377804       -10.2806
   4   0.0000       0.360021         9.7967
   5   0.0000       0.656070        17.8526

MULLIKEN ATOMIC CHARGES AND SPIN POPULATIONS
--------------------------------------------
   0 H :    0.164586   -0.069706
   1 O :   -0.164586    1.069706
Sum of atomic charges         :    0.0000000

LOEWDIN ATOMIC CHARGES AND SPIN POPULATIONS
-------------------------------------------
   0 H :    0.109587   -0.055923
   1 O :   -0.109587    1.055923

  Mayer bond orders larger than 0.1
B(  0-H ,  1-O ) :   0.9681

FINAL SINGLE POINT ENERGY       -74.362637379044

DIPOLE MOMENT
-------------
                                X             Y             Z
Electronic contribution:     -0.00000       0.00000       0.35185
Nuclear contribution   :      0.00000       0.00000      -0.85498
                        -----------------------------------------
Total Dipole Moment    :     -0.00000       0.00000      -0.50312
                        -----------------------------------------
Magnitude (a.u.)       :      0.50312
Magnitude (Debye)      :      1.27884

                             ****ORCA TERMINATED NORMALLY****
TOTAL RUN TIME: 0 days 0 hours 0 minutes 2 seconds 574 msec
