 Q-Chem 4.4, Q-Chem, Inc., Pleasanton, CA (2016)
 Q-Chem 4.4.1 for Intel X86 EM64T Linux

User input:
--------------------------------------------------------------
$rem
 method hf
 basis sto-3g
 scf_guess core
 scf_convergence 11
 symmetry false
 sym_ignore true
$end

$molecule
0 1
Li        -1.67861        0.61476       -0.00041
H         -0.01729        0.38654       -0.00063
H         -0.84551        3.08551       -0.00236
H         -0.46199        3.67980       -0.03270
$end
--------------------------------------------------------------

             Standard Nuclear Orientation (Angstroms)
    I     Atom           X                Y                Z
 ----------------------------------------------------------------
    1      Li     -1.6786100000     0.6147600000    -0.0004100000
    2      H      -0.0172900000     0.3865400000    -0.0006300000
    3      H      -0.8455100000     3.0855100000    -0.0023600000
    4      H      -0.4619900000     3.6798000000    -0.0327000000
 ----------------------------------------------------------------

   13      -8.9723427533      3.71E-13 Convergence criterion met
 Total energy in the final basis set = -8.9723427533

                    Orbital Energies (a.u.)
 --------------------------------------------------------------

 Alpha MOs
 -- Occupied --
 -2.351  -0.595  -0.274

          Ground-State Mulliken Net Atomic Charges

     Atom                 Charge (a.u.)
  ----------------------------------------
      1 Li                   -0.017196
      2 H                     0.005906
      3 H                    -0.000844
      4 H                     0.012134
  ----------------------------------------
  Sum of atomic charges =     0.000000

                    Cartesian Multipole Moments
 -----------------------------------------------------------------
    Charge (ESU x 10^10)
                 0.0000
    Dipole Moment (Debye)
         X      -4.8174      Y       0.9597      Z      -0.0032
       Tot       4.9121
    Quadrupole Moments (Debye-Ang)
        XX       5.6071     XY      -3.5388     YY      -5.3326
        XZ      -0.0051     YZ      -0.0218     ZZ      -7.1379

 Total job time:  0.21s(wall), 0.21s(cpu)
        *  Thank you very much for using Q-Chem.  Have a nice day.  *
