                               Psi4 1.1rc2.dev3

  ==> Input File <==

--------------------------------------------------------------------------
molecule {
    Li        -1.67861        0.61476       -0.00041
    H         -0.01729        0.38654       -0.00063
    H         -0.84551        3.08551       -0.00236
    H         -0.46199        3.67980       -0.03270
    units angstrom
    symmetry c1
    no_reorient
    no_com
}

set {
    basis sto-3g
    scf_type direct
}

energy('hf')
--------------------------------------------------------------------------

    Molecular point group: c1

    Geometry (in Angstrom), charge = 0, multiplicity = 1:

       Center              X                  Y                   Z               Mass
    ------------   -----------------  -----------------  -----------------  -----------------
          LI         -1.678610000000     0.614760000000    -0.000410000000     7.016004548000
           H         -0.017290000000     0.386540000000    -0.000630000000     1.007825032070
           H         -0.845510000000     3.085510000000    -0.002360000000     1.007825032070
           H         -0.461990000000     3.679800000000    -0.032700000000     1.007825032070

  Charge       = 0
  Multiplicity = 1
  Basis Set: STO-3G
    Blend: STO-3G
  Basis Set: (STO-3G AUX)
    Blend: DEF2-SVP-JKFIT

    Orbital Energies (a.u.)
    -----------------------

    Doubly Occupied:

       1A     -2.350578     2A     -0.595155     3A     -0.274184

  @RHF Final Energy:    -8.97234275455279

   => Energetics <=

    Nuclear Repulsion Energy =              3.1310842419852567
    One-Electron Energy =                 -17.7670206940422730
    Two-Electron Energy =                   5.6635936975042291
    DFT Exchange-Correlation Energy =       0.0000000000000000
    Empirical Dispersion Energy =           0.0000000000000000
    PCM Polarization Energy =               0.0000000000000000
    EFP Energy =                            0.0000000000000000
    Total Energy =                         -8.9723427545527876
*** Psi4 exiting successfully. Buy a developer a beer!
