                         Program Version 3.0.3 - RELEASE   -
|  1> ! rhf sto-3g verytightscf hcore nousesym
|  2>
|  3> * xyz 0 1
|  4> Li        -1.67861        0.61476       -0.00041
|  5> H         -0.01729        0.38654       -0.00063
|  6> H         -0.84551        3.08551       -0.00236
|  7> H         -0.46199        3.67980       -0.03270
|  8> *
|  9>
| 10>                          ****END OF INPUT****

CARTESIAN COORDINATES (ANGSTROEM)
---------------------------------
  Li    -1.678610    0.614760   -0.000410
  H     -0.017290    0.386540   -0.000630
  H     -0.845510    3.085510   -0.002360
  H     -0.461990    3.679800   -0.032700

 Total Charge           Charge          ....    0
 Multiplicity           Mult            ....    1
 Number of Electrons    NEL             ....    6
 Basis Dimension        Dim             ....    8

ORBITAL ENERGIES
----------------

  NO   OCC          E(Eh)            E(eV)
   0   2.0000      -2.350579       -63.9625
   1   2.0000      -0.595155       -16.1950
   2   2.0000      -0.274183        -7.4609
   3   0.0000       0.078596         2.1387
   4   0.0000       0.163902         4.4600
   5   0.0000       0.175836         4.7847
   6   0.0000       0.528926        14.3928
   7   0.0000       0.764255        20.7964

MULLIKEN ATOMIC CHARGES
-----------------------
   0 Li:   -0.017196
   1 H :    0.005906
   2 H :   -0.000844
   3 H :    0.012134
Sum of atomic charges:    0.0000000

LOEWDIN ATOMIC CHARGES
----------------------
   0 Li:   -0.034892
   1 H :    0.001078
   2 H :    0.020131
   3 H :    0.013683

  Mayer bond orders larger than 0.1
B(  0-Li,  1-H ) :   0.9967 B(  2-H ,  3-H ) :   0.9849

FINAL SINGLE POINT ENERGY        -8.972342754559

DIPOLE MOMENT
-------------
                                X             Y             Z
Electronic contribution:     -4.65190      -3.56492       0.02433
Nuclear contribution   :      2.75658       3.94249      -0.02560
                        -----------------------------------------
Total Dipole Moment    :     -1.89532       0.37758      -0.00127
                        -----------------------------------------
Magnitude (a.u.)       :      1.93256
Magnitude (Debye)      :      4.91219

                             ****ORCA TERMINATED NORMALLY****
TOTAL RUN TIME: 0 days 0 hours 0 minutes 23 seconds 650 msec
